TITLE = "ETAPE1"
VARIABLES = "X", "Y", "U"
ZONE T="0.50000000000000033␣␣␣seconds", I=81 , J=81, DATAPACKING=POINT
0.0000000000000000 0.0000000000000000 1.0000000000000000
2.5000000000000001E-002 0.0000000000000000 1.0000000000000000
5.0000000000000003E-002 0.0000000000000000 1.0000000000000000
...
1 .92 49 999999999972
1.9999999999999969
1.0000000000000000
1 .94 99 999999999971
1.9999999999999969
1.0000000000000000
1 .97 49 999999999970
1.9999999999999969
1.0000000000000000
1 .99 99 999999999969
1.9999999999999969
1.0000000000000000