 TITLE = "ETAPE2"
 VARIABLES = "X", "Y", "P"
 ZONE T=" 0.0000000000000E+00   seconds", I=  21, J=  21, DATAPACKING=POINT
 0.0000000000000E+00  0.0000000000000E+00  0.0000000000000E+00
 0.0000000000000E+00  5.0000000000000E-02  4.9979169270678E-02
 0.0000000000000E+00  1.0000000000000E-01  9.9833416646828E-02
 0.0000000000000E+00  1.5000000000000E-01  1.4943813247360E-01
 0.0000000000000E+00  2.0000000000000E-01  1.9866933079506E-01
 0.0000000000000E+00  2.5000000000000E-01  2.4740395925452E-01
 0.0000000000000E+00  3.0000000000000E-01  2.9552020666134E-01
 0.0000000000000E+00  3.5000000000000E-01  3.4289780745545E-01
 0.0000000000000E+00  4.0000000000000E-01  3.8941834230865E-01
 0.0000000000000E+00  4.5000000000000E-01  4.3496553411123E-01
 0.0000000000000E+00  5.0000000000000E-01  4.7942553860420E-01
 0.0000000000000E+00  5.5000000000000E-01  5.2268722893066E-01
 0.0000000000000E+00  6.0000000000000E-01  5.6464247339504E-01
 0.0000000000000E+00  6.5000000000000E-01  6.0518640573604E-01
 0.0000000000000E+00  7.0000000000000E-01  6.4421768723769E-01
 0.0000000000000E+00  7.5000000000000E-01  6.8163876002333E-01
 0.0000000000000E+00  8.0000000000000E-01  7.1735609089952E-01
 0.0000000000000E+00  8.5000000000000E-01  7.5128040514029E-01
 0.0000000000000E+00  9.0000000000000E-01  7.8332690962748E-01
 0.0000000000000E+00  9.5000000000000E-01  8.1341550478937E-01
 0.0000000000000E+00  1.0000000000000E+00  8.4147098480790E-01
 5.0000000000000E-02  0.0000000000000E+00  0.0000000000000E+00
 5.0000000000000E-02  5.0000000000000E-02  0.0000000000000E+00
 5.0000000000000E-02  1.0000000000000E-01  0.0000000000000E+00
 5.0000000000000E-02  1.5000000000000E-01  0.0000000000000E+00
 5.0000000000000E-02  2.0000000000000E-01  0.0000000000000E+00
 5.0000000000000E-02  2.5000000000000E-01  0.0000000000000E+00
 5.0000000000000E-02  3.0000000000000E-01  0.0000000000000E+00
 5.0000000000000E-02  3.5000000000000E-01  0.0000000000000E+00
 5.0000000000000E-02  4.0000000000000E-01  0.0000000000000E+00
 5.0000000000000E-02  4.5000000000000E-01  0.0000000000000E+00
 5.0000000000000E-02  5.0000000000000E-01  0.0000000000000E+00
 5.0000000000000E-02  5.5000000000000E-01  0.0000000000000E+00
 5.0000000000000E-02  6.0000000000000E-01  0.0000000000000E+00
 5.0000000000000E-02  6.5000000000000E-01  0.0000000000000E+00
 5.0000000000000E-02  7.0000000000000E-01  0.0000000000000E+00
 5.0000000000000E-02  7.5000000000000E-01  0.0000000000000E+00
 5.0000000000000E-02  8.0000000000000E-01  0.0000000000000E+00
 5.0000000000000E-02  8.5000000000000E-01  0.0000000000000E+00
 5.0000000000000E-02  9.0000000000000E-01  0.0000000000000E+00
 5.0000000000000E-02  9.5000000000000E-01  0.0000000000000E+00
 5.0000000000000E-02  1.0000000000000E+00  8.8461412476761E-01
 1.0000000000000E-01  0.0000000000000E+00  0.0000000000000E+00
 1.0000000000000E-01  5.0000000000000E-02  0.0000000000000E+00
 1.0000000000000E-01  1.0000000000000E-01  0.0000000000000E+00
 1.0000000000000E-01  1.5000000000000E-01  0.0000000000000E+00
 1.0000000000000E-01  2.0000000000000E-01  0.0000000000000E+00
 1.0000000000000E-01  2.5000000000000E-01  0.0000000000000E+00
 1.0000000000000E-01  3.0000000000000E-01  0.0000000000000E+00
 1.0000000000000E-01  3.5000000000000E-01  0.0000000000000E+00
 1.0000000000000E-01  4.0000000000000E-01  0.0000000000000E+00
 1.0000000000000E-01  4.5000000000000E-01  0.0000000000000E+00
 1.0000000000000E-01  5.0000000000000E-01  0.0000000000000E+00
 1.0000000000000E-01  5.5000000000000E-01  0.0000000000000E+00
 1.0000000000000E-01  6.0000000000000E-01  0.0000000000000E+00
 1.0000000000000E-01  6.5000000000000E-01  0.0000000000000E+00
 1.0000000000000E-01  7.0000000000000E-01  0.0000000000000E+00
 1.0000000000000E-01  7.5000000000000E-01  0.0000000000000E+00
 1.0000000000000E-01  8.0000000000000E-01  0.0000000000000E+00
 1.0000000000000E-01  8.5000000000000E-01  0.0000000000000E+00
 1.0000000000000E-01  9.0000000000000E-01  0.0000000000000E+00
 1.0000000000000E-01  9.5000000000000E-01  0.0000000000000E+00
 1.0000000000000E-01  1.0000000000000E+00  9.2996926081416E-01
 1.5000000000000E-01  0.0000000000000E+00  0.0000000000000E+00
 1.5000000000000E-01  5.0000000000000E-02  0.0000000000000E+00
 1.5000000000000E-01  1.0000000000000E-01  0.0000000000000E+00
 1.5000000000000E-01  1.5000000000000E-01  0.0000000000000E+00
 1.5000000000000E-01  2.0000000000000E-01  0.0000000000000E+00
 1.5000000000000E-01  2.5000000000000E-01  0.0000000000000E+00
 1.5000000000000E-01  3.0000000000000E-01  0.0000000000000E+00
 1.5000000000000E-01  3.5000000000000E-01  0.0000000000000E+00
 1.5000000000000E-01  4.0000000000000E-01  0.0000000000000E+00
 1.5000000000000E-01  4.5000000000000E-01  0.0000000000000E+00
 1.5000000000000E-01  5.0000000000000E-01  0.0000000000000E+00
 1.5000000000000E-01  5.5000000000000E-01  0.0000000000000E+00
 1.5000000000000E-01  6.0000000000000E-01  0.0000000000000E+00
 1.5000000000000E-01  6.5000000000000E-01  0.0000000000000E+00
 1.5000000000000E-01  7.0000000000000E-01  0.0000000000000E+00
 1.5000000000000E-01  7.5000000000000E-01  0.0000000000000E+00
 1.5000000000000E-01  8.0000000000000E-01  0.0000000000000E+00
 1.5000000000000E-01  8.5000000000000E-01  0.0000000000000E+00
 1.5000000000000E-01  9.0000000000000E-01  0.0000000000000E+00
 1.5000000000000E-01  9.5000000000000E-01  0.0000000000000E+00
 1.5000000000000E-01  1.0000000000000E+00  9.7764980441211E-01
 2.0000000000000E-01  0.0000000000000E+00  0.0000000000000E+00
 2.0000000000000E-01  5.0000000000000E-02  0.0000000000000E+00
 2.0000000000000E-01  1.0000000000000E-01  0.0000000000000E+00
 2.0000000000000E-01  1.5000000000000E-01  0.0000000000000E+00
 2.0000000000000E-01  2.0000000000000E-01  0.0000000000000E+00
 2.0000000000000E-01  2.5000000000000E-01  0.0000000000000E+00
 2.0000000000000E-01  3.0000000000000E-01  0.0000000000000E+00
 2.0000000000000E-01  3.5000000000000E-01  0.0000000000000E+00
 2.0000000000000E-01  4.0000000000000E-01  0.0000000000000E+00
 2.0000000000000E-01  4.5000000000000E-01  0.0000000000000E+00
 2.0000000000000E-01  5.0000000000000E-01  0.0000000000000E+00
 2.0000000000000E-01  5.5000000000000E-01  0.0000000000000E+00
 2.0000000000000E-01  6.0000000000000E-01  0.0000000000000E+00
 2.0000000000000E-01  6.5000000000000E-01  0.0000000000000E+00
 2.0000000000000E-01  7.0000000000000E-01  0.0000000000000E+00
 2.0000000000000E-01  7.5000000000000E-01  0.0000000000000E+00
 2.0000000000000E-01  8.0000000000000E-01  0.0000000000000E+00
 2.0000000000000E-01  8.5000000000000E-01  0.0000000000000E+00
 2.0000000000000E-01  9.0000000000000E-01  0.0000000000000E+00
 2.0000000000000E-01  9.5000000000000E-01  0.0000000000000E+00
 2.0000000000000E-01  1.0000000000000E+00  1.0277749817561E+00
 2.5000000000000E-01  0.0000000000000E+00  0.0000000000000E+00
 2.5000000000000E-01  5.0000000000000E-02  0.0000000000000E+00
 2.5000000000000E-01  1.0000000000000E-01  0.0000000000000E+00
 2.5000000000000E-01  1.5000000000000E-01  0.0000000000000E+00
 2.5000000000000E-01  2.0000000000000E-01  0.0000000000000E+00
 2.5000000000000E-01  2.5000000000000E-01  0.0000000000000E+00
 2.5000000000000E-01  3.0000000000000E-01  0.0000000000000E+00
 2.5000000000000E-01  3.5000000000000E-01  0.0000000000000E+00
 2.5000000000000E-01  4.0000000000000E-01  0.0000000000000E+00
 2.5000000000000E-01  4.5000000000000E-01  0.0000000000000E+00
 2.5000000000000E-01  5.0000000000000E-01  0.0000000000000E+00
 2.5000000000000E-01  5.5000000000000E-01  0.0000000000000E+00
 2.5000000000000E-01  6.0000000000000E-01  0.0000000000000E+00
 2.5000000000000E-01  6.5000000000000E-01  0.0000000000000E+00
 2.5000000000000E-01  7.0000000000000E-01  0.0000000000000E+00
 2.5000000000000E-01  7.5000000000000E-01  0.0000000000000E+00
 2.5000000000000E-01  8.0000000000000E-01  0.0000000000000E+00
 2.5000000000000E-01  8.5000000000000E-01  0.0000000000000E+00
 2.5000000000000E-01  9.0000000000000E-01  0.0000000000000E+00
 2.5000000000000E-01  9.5000000000000E-01  0.0000000000000E+00
 2.5000000000000E-01  1.0000000000000E+00  1.0804701318986E+00
 3.0000000000000E-01  0.0000000000000E+00  0.0000000000000E+00
 3.0000000000000E-01  5.0000000000000E-02  0.0000000000000E+00
 3.0000000000000E-01  1.0000000000000E-01  0.0000000000000E+00
 3.0000000000000E-01  1.5000000000000E-01  0.0000000000000E+00
 3.0000000000000E-01  2.0000000000000E-01  0.0000000000000E+00
 3.0000000000000E-01  2.5000000000000E-01  0.0000000000000E+00
 3.0000000000000E-01  3.0000000000000E-01  0.0000000000000E+00
 3.0000000000000E-01  3.5000000000000E-01  0.0000000000000E+00
 3.0000000000000E-01  4.0000000000000E-01  0.0000000000000E+00
 3.0000000000000E-01  4.5000000000000E-01  0.0000000000000E+00
 3.0000000000000E-01  5.0000000000000E-01  0.0000000000000E+00
 3.0000000000000E-01  5.5000000000000E-01  0.0000000000000E+00
 3.0000000000000E-01  6.0000000000000E-01  0.0000000000000E+00
 3.0000000000000E-01  6.5000000000000E-01  0.0000000000000E+00
 3.0000000000000E-01  7.0000000000000E-01  0.0000000000000E+00
 3.0000000000000E-01  7.5000000000000E-01  0.0000000000000E+00
 3.0000000000000E-01  8.0000000000000E-01  0.0000000000000E+00
 3.0000000000000E-01  8.5000000000000E-01  0.0000000000000E+00
 3.0000000000000E-01  9.0000000000000E-01  0.0000000000000E+00
 3.0000000000000E-01  9.5000000000000E-01  0.0000000000000E+00
 3.0000000000000E-01  1.0000000000000E+00  1.1358670201626E+00
 3.5000000000000E-01  0.0000000000000E+00  0.0000000000000E+00
 3.5000000000000E-01  5.0000000000000E-02  0.0000000000000E+00
 3.5000000000000E-01  1.0000000000000E-01  0.0000000000000E+00
 3.5000000000000E-01  1.5000000000000E-01  0.0000000000000E+00
 3.5000000000000E-01  2.0000000000000E-01  0.0000000000000E+00
 3.5000000000000E-01  2.5000000000000E-01  0.0000000000000E+00
 3.5000000000000E-01  3.0000000000000E-01  0.0000000000000E+00
 3.5000000000000E-01  3.5000000000000E-01  0.0000000000000E+00
 3.5000000000000E-01  4.0000000000000E-01  0.0000000000000E+00
 3.5000000000000E-01  4.5000000000000E-01  0.0000000000000E+00
 3.5000000000000E-01  5.0000000000000E-01  0.0000000000000E+00
 3.5000000000000E-01  5.5000000000000E-01  0.0000000000000E+00
 3.5000000000000E-01  6.0000000000000E-01  0.0000000000000E+00
 3.5000000000000E-01  6.5000000000000E-01  0.0000000000000E+00
 3.5000000000000E-01  7.0000000000000E-01  0.0000000000000E+00
 3.5000000000000E-01  7.5000000000000E-01  0.0000000000000E+00
 3.5000000000000E-01  8.0000000000000E-01  0.0000000000000E+00
 3.5000000000000E-01  8.5000000000000E-01  0.0000000000000E+00
 3.5000000000000E-01  9.0000000000000E-01  0.0000000000000E+00
 3.5000000000000E-01  9.5000000000000E-01  0.0000000000000E+00
 3.5000000000000E-01  1.0000000000000E+00  1.1941041676237E+00
 4.0000000000000E-01  0.0000000000000E+00  0.0000000000000E+00
 4.0000000000000E-01  5.0000000000000E-02  0.0000000000000E+00
 4.0000000000000E-01  1.0000000000000E-01  0.0000000000000E+00
 4.0000000000000E-01  1.5000000000000E-01  0.0000000000000E+00
 4.0000000000000E-01  2.0000000000000E-01  0.0000000000000E+00
 4.0000000000000E-01  2.5000000000000E-01  0.0000000000000E+00
 4.0000000000000E-01  3.0000000000000E-01  0.0000000000000E+00
 4.0000000000000E-01  3.5000000000000E-01  0.0000000000000E+00
 4.0000000000000E-01  4.0000000000000E-01  0.0000000000000E+00
 4.0000000000000E-01  4.5000000000000E-01  0.0000000000000E+00
 4.0000000000000E-01  5.0000000000000E-01  0.0000000000000E+00
 4.0000000000000E-01  5.5000000000000E-01  0.0000000000000E+00
 4.0000000000000E-01  6.0000000000000E-01  0.0000000000000E+00
 4.0000000000000E-01  6.5000000000000E-01  0.0000000000000E+00
 4.0000000000000E-01  7.0000000000000E-01  0.0000000000000E+00
 4.0000000000000E-01  7.5000000000000E-01  0.0000000000000E+00
 4.0000000000000E-01  8.0000000000000E-01  0.0000000000000E+00
 4.0000000000000E-01  8.5000000000000E-01  0.0000000000000E+00
 4.0000000000000E-01  9.0000000000000E-01  0.0000000000000E+00
 4.0000000000000E-01  9.5000000000000E-01  0.0000000000000E+00
 4.0000000000000E-01  1.0000000000000E+00  1.2553271974849E+00
 4.5000000000000E-01  0.0000000000000E+00  0.0000000000000E+00
 4.5000000000000E-01  5.0000000000000E-02  0.0000000000000E+00
 4.5000000000000E-01  1.0000000000000E-01  0.0000000000000E+00
 4.5000000000000E-01  1.5000000000000E-01  0.0000000000000E+00
 4.5000000000000E-01  2.0000000000000E-01  0.0000000000000E+00
 4.5000000000000E-01  2.5000000000000E-01  0.0000000000000E+00
 4.5000000000000E-01  3.0000000000000E-01  0.0000000000000E+00
 4.5000000000000E-01  3.5000000000000E-01  0.0000000000000E+00
 4.5000000000000E-01  4.0000000000000E-01  0.0000000000000E+00
 4.5000000000000E-01  4.5000000000000E-01  0.0000000000000E+00
 4.5000000000000E-01  5.0000000000000E-01  0.0000000000000E+00
 4.5000000000000E-01  5.5000000000000E-01  0.0000000000000E+00
 4.5000000000000E-01  6.0000000000000E-01  0.0000000000000E+00
 4.5000000000000E-01  6.5000000000000E-01  0.0000000000000E+00
 4.5000000000000E-01  7.0000000000000E-01  0.0000000000000E+00
 4.5000000000000E-01  7.5000000000000E-01  0.0000000000000E+00
 4.5000000000000E-01  8.0000000000000E-01  0.0000000000000E+00
 4.5000000000000E-01  8.5000000000000E-01  0.0000000000000E+00
 4.5000000000000E-01  9.0000000000000E-01  0.0000000000000E+00
 4.5000000000000E-01  9.5000000000000E-01  0.0000000000000E+00
 4.5000000000000E-01  1.0000000000000E+00  1.3196891992106E+00
 5.0000000000000E-01  0.0000000000000E+00  0.0000000000000E+00
 5.0000000000000E-01  5.0000000000000E-02  0.0000000000000E+00
 5.0000000000000E-01  1.0000000000000E-01  0.0000000000000E+00
 5.0000000000000E-01  1.5000000000000E-01  0.0000000000000E+00
 5.0000000000000E-01  2.0000000000000E-01  0.0000000000000E+00
 5.0000000000000E-01  2.5000000000000E-01  0.0000000000000E+00
 5.0000000000000E-01  3.0000000000000E-01  0.0000000000000E+00
 5.0000000000000E-01  3.5000000000000E-01  0.0000000000000E+00
 5.0000000000000E-01  4.0000000000000E-01  0.0000000000000E+00
 5.0000000000000E-01  4.5000000000000E-01  0.0000000000000E+00
 5.0000000000000E-01  5.0000000000000E-01  0.0000000000000E+00
 5.0000000000000E-01  5.5000000000000E-01  0.0000000000000E+00
 5.0000000000000E-01  6.0000000000000E-01  0.0000000000000E+00
 5.0000000000000E-01  6.5000000000000E-01  0.0000000000000E+00
 5.0000000000000E-01  7.0000000000000E-01  0.0000000000000E+00
 5.0000000000000E-01  7.5000000000000E-01  0.0000000000000E+00
 5.0000000000000E-01  8.0000000000000E-01  0.0000000000000E+00
 5.0000000000000E-01  8.5000000000000E-01  0.0000000000000E+00
 5.0000000000000E-01  9.0000000000000E-01  0.0000000000000E+00
 5.0000000000000E-01  9.5000000000000E-01  0.0000000000000E+00
 5.0000000000000E-01  1.0000000000000E+00  1.3873511113298E+00
 5.5000000000000E-01  0.0000000000000E+00  0.0000000000000E+00
 5.5000000000000E-01  5.0000000000000E-02  0.0000000000000E+00
 5.5000000000000E-01  1.0000000000000E-01  0.0000000000000E+00
 5.5000000000000E-01  1.5000000000000E-01  0.0000000000000E+00
 5.5000000000000E-01  2.0000000000000E-01  0.0000000000000E+00
 5.5000000000000E-01  2.5000000000000E-01  0.0000000000000E+00
 5.5000000000000E-01  3.0000000000000E-01  0.0000000000000E+00
 5.5000000000000E-01  3.5000000000000E-01  0.0000000000000E+00
 5.5000000000000E-01  4.0000000000000E-01  0.0000000000000E+00
 5.5000000000000E-01  4.5000000000000E-01  0.0000000000000E+00
 5.5000000000000E-01  5.0000000000000E-01  0.0000000000000E+00
 5.5000000000000E-01  5.5000000000000E-01  0.0000000000000E+00
 5.5000000000000E-01  6.0000000000000E-01  0.0000000000000E+00
 5.5000000000000E-01  6.5000000000000E-01  0.0000000000000E+00
 5.5000000000000E-01  7.0000000000000E-01  0.0000000000000E+00
 5.5000000000000E-01  7.5000000000000E-01  0.0000000000000E+00
 5.5000000000000E-01  8.0000000000000E-01  0.0000000000000E+00
 5.5000000000000E-01  8.5000000000000E-01  0.0000000000000E+00
 5.5000000000000E-01  9.0000000000000E-01  0.0000000000000E+00
 5.5000000000000E-01  9.5000000000000E-01  0.0000000000000E+00
 5.5000000000000E-01  1.0000000000000E+00  1.4584821238661E+00
 6.0000000000000E-01  0.0000000000000E+00  0.0000000000000E+00
 6.0000000000000E-01  5.0000000000000E-02  0.0000000000000E+00
 6.0000000000000E-01  1.0000000000000E-01  0.0000000000000E+00
 6.0000000000000E-01  1.5000000000000E-01  0.0000000000000E+00
 6.0000000000000E-01  2.0000000000000E-01  0.0000000000000E+00
 6.0000000000000E-01  2.5000000000000E-01  0.0000000000000E+00
 6.0000000000000E-01  3.0000000000000E-01  0.0000000000000E+00
 6.0000000000000E-01  3.5000000000000E-01  0.0000000000000E+00
 6.0000000000000E-01  4.0000000000000E-01  0.0000000000000E+00
 6.0000000000000E-01  4.5000000000000E-01  0.0000000000000E+00
 6.0000000000000E-01  5.0000000000000E-01  0.0000000000000E+00
 6.0000000000000E-01  5.5000000000000E-01  0.0000000000000E+00
 6.0000000000000E-01  6.0000000000000E-01  0.0000000000000E+00
 6.0000000000000E-01  6.5000000000000E-01  0.0000000000000E+00
 6.0000000000000E-01  7.0000000000000E-01  0.0000000000000E+00
 6.0000000000000E-01  7.5000000000000E-01  0.0000000000000E+00
 6.0000000000000E-01  8.0000000000000E-01  0.0000000000000E+00
 6.0000000000000E-01  8.5000000000000E-01  0.0000000000000E+00
 6.0000000000000E-01  9.0000000000000E-01  0.0000000000000E+00
 6.0000000000000E-01  9.5000000000000E-01  0.0000000000000E+00
 6.0000000000000E-01  1.0000000000000E+00  1.5332601014016E+00
 6.5000000000000E-01  0.0000000000000E+00  0.0000000000000E+00
 6.5000000000000E-01  5.0000000000000E-02  0.0000000000000E+00
 6.5000000000000E-01  1.0000000000000E-01  0.0000000000000E+00
 6.5000000000000E-01  1.5000000000000E-01  0.0000000000000E+00
 6.5000000000000E-01  2.0000000000000E-01  0.0000000000000E+00
 6.5000000000000E-01  2.5000000000000E-01  0.0000000000000E+00
 6.5000000000000E-01  3.0000000000000E-01  0.0000000000000E+00
 6.5000000000000E-01  3.5000000000000E-01  0.0000000000000E+00
 6.5000000000000E-01  4.0000000000000E-01  0.0000000000000E+00
 6.5000000000000E-01  4.5000000000000E-01  0.0000000000000E+00
 6.5000000000000E-01  5.0000000000000E-01  0.0000000000000E+00
 6.5000000000000E-01  5.5000000000000E-01  0.0000000000000E+00
 6.5000000000000E-01  6.0000000000000E-01  0.0000000000000E+00
 6.5000000000000E-01  6.5000000000000E-01  0.0000000000000E+00
 6.5000000000000E-01  7.0000000000000E-01  0.0000000000000E+00
 6.5000000000000E-01  7.5000000000000E-01  0.0000000000000E+00
 6.5000000000000E-01  8.0000000000000E-01  0.0000000000000E+00
 6.5000000000000E-01  8.5000000000000E-01  0.0000000000000E+00
 6.5000000000000E-01  9.0000000000000E-01  0.0000000000000E+00
 6.5000000000000E-01  9.5000000000000E-01  0.0000000000000E+00
 6.5000000000000E-01  1.0000000000000E+00  1.6118720278301E+00
 7.0000000000000E-01  0.0000000000000E+00  0.0000000000000E+00
 7.0000000000000E-01  5.0000000000000E-02  0.0000000000000E+00
 7.0000000000000E-01  1.0000000000000E-01  0.0000000000000E+00
 7.0000000000000E-01  1.5000000000000E-01  0.0000000000000E+00
 7.0000000000000E-01  2.0000000000000E-01  0.0000000000000E+00
 7.0000000000000E-01  2.5000000000000E-01  0.0000000000000E+00
 7.0000000000000E-01  3.0000000000000E-01  0.0000000000000E+00
 7.0000000000000E-01  3.5000000000000E-01  0.0000000000000E+00
 7.0000000000000E-01  4.0000000000000E-01  0.0000000000000E+00
 7.0000000000000E-01  4.5000000000000E-01  0.0000000000000E+00
 7.0000000000000E-01  5.0000000000000E-01  0.0000000000000E+00
 7.0000000000000E-01  5.5000000000000E-01  0.0000000000000E+00
 7.0000000000000E-01  6.0000000000000E-01  0.0000000000000E+00
 7.0000000000000E-01  6.5000000000000E-01  0.0000000000000E+00
 7.0000000000000E-01  7.0000000000000E-01  0.0000000000000E+00
 7.0000000000000E-01  7.5000000000000E-01  0.0000000000000E+00
 7.0000000000000E-01  8.0000000000000E-01  0.0000000000000E+00
 7.0000000000000E-01  8.5000000000000E-01  0.0000000000000E+00
 7.0000000000000E-01  9.0000000000000E-01  0.0000000000000E+00
 7.0000000000000E-01  9.5000000000000E-01  0.0000000000000E+00
 7.0000000000000E-01  1.0000000000000E+00  1.6945144739147E+00
 7.5000000000000E-01  0.0000000000000E+00  0.0000000000000E+00
 7.5000000000000E-01  5.0000000000000E-02  0.0000000000000E+00
 7.5000000000000E-01  1.0000000000000E-01  0.0000000000000E+00
 7.5000000000000E-01  1.5000000000000E-01  0.0000000000000E+00
 7.5000000000000E-01  2.0000000000000E-01  0.0000000000000E+00
 7.5000000000000E-01  2.5000000000000E-01  0.0000000000000E+00
 7.5000000000000E-01  3.0000000000000E-01  0.0000000000000E+00
 7.5000000000000E-01  3.5000000000000E-01  0.0000000000000E+00
 7.5000000000000E-01  4.0000000000000E-01  0.0000000000000E+00
 7.5000000000000E-01  4.5000000000000E-01  0.0000000000000E+00
 7.5000000000000E-01  5.0000000000000E-01  0.0000000000000E+00
 7.5000000000000E-01  5.5000000000000E-01  0.0000000000000E+00
 7.5000000000000E-01  6.0000000000000E-01  0.0000000000000E+00
 7.5000000000000E-01  6.5000000000000E-01  0.0000000000000E+00
 7.5000000000000E-01  7.0000000000000E-01  0.0000000000000E+00
 7.5000000000000E-01  7.5000000000000E-01  0.0000000000000E+00
 7.5000000000000E-01  8.0000000000000E-01  0.0000000000000E+00
 7.5000000000000E-01  8.5000000000000E-01  0.0000000000000E+00
 7.5000000000000E-01  9.0000000000000E-01  0.0000000000000E+00
 7.5000000000000E-01  9.5000000000000E-01  0.0000000000000E+00
 7.5000000000000E-01  1.0000000000000E+00  1.7813940888174E+00
 8.0000000000000E-01  0.0000000000000E+00  0.0000000000000E+00
 8.0000000000000E-01  5.0000000000000E-02  0.0000000000000E+00
 8.0000000000000E-01  1.0000000000000E-01  0.0000000000000E+00
 8.0000000000000E-01  1.5000000000000E-01  0.0000000000000E+00
 8.0000000000000E-01  2.0000000000000E-01  0.0000000000000E+00
 8.0000000000000E-01  2.5000000000000E-01  0.0000000000000E+00
 8.0000000000000E-01  3.0000000000000E-01  0.0000000000000E+00
 8.0000000000000E-01  3.5000000000000E-01  0.0000000000000E+00
 8.0000000000000E-01  4.0000000000000E-01  0.0000000000000E+00
 8.0000000000000E-01  4.5000000000000E-01  0.0000000000000E+00
 8.0000000000000E-01  5.0000000000000E-01  0.0000000000000E+00
 8.0000000000000E-01  5.5000000000000E-01  0.0000000000000E+00
 8.0000000000000E-01  6.0000000000000E-01  0.0000000000000E+00
 8.0000000000000E-01  6.5000000000000E-01  0.0000000000000E+00
 8.0000000000000E-01  7.0000000000000E-01  0.0000000000000E+00
 8.0000000000000E-01  7.5000000000000E-01  0.0000000000000E+00
 8.0000000000000E-01  8.0000000000000E-01  0.0000000000000E+00
 8.0000000000000E-01  8.5000000000000E-01  0.0000000000000E+00
 8.0000000000000E-01  9.0000000000000E-01  0.0000000000000E+00
 8.0000000000000E-01  9.5000000000000E-01  0.0000000000000E+00
 8.0000000000000E-01  1.0000000000000E+00  1.8727281168288E+00
 8.5000000000000E-01  0.0000000000000E+00  0.0000000000000E+00
 8.5000000000000E-01  5.0000000000000E-02  0.0000000000000E+00
 8.5000000000000E-01  1.0000000000000E-01  0.0000000000000E+00
 8.5000000000000E-01  1.5000000000000E-01  0.0000000000000E+00
 8.5000000000000E-01  2.0000000000000E-01  0.0000000000000E+00
 8.5000000000000E-01  2.5000000000000E-01  0.0000000000000E+00
 8.5000000000000E-01  3.0000000000000E-01  0.0000000000000E+00
 8.5000000000000E-01  3.5000000000000E-01  0.0000000000000E+00
 8.5000000000000E-01  4.0000000000000E-01  0.0000000000000E+00
 8.5000000000000E-01  4.5000000000000E-01  0.0000000000000E+00
 8.5000000000000E-01  5.0000000000000E-01  0.0000000000000E+00
 8.5000000000000E-01  5.5000000000000E-01  0.0000000000000E+00
 8.5000000000000E-01  6.0000000000000E-01  0.0000000000000E+00
 8.5000000000000E-01  6.5000000000000E-01  0.0000000000000E+00
 8.5000000000000E-01  7.0000000000000E-01  0.0000000000000E+00
 8.5000000000000E-01  7.5000000000000E-01  0.0000000000000E+00
 8.5000000000000E-01  8.0000000000000E-01  0.0000000000000E+00
 8.5000000000000E-01  8.5000000000000E-01  0.0000000000000E+00
 8.5000000000000E-01  9.0000000000000E-01  0.0000000000000E+00
 8.5000000000000E-01  9.5000000000000E-01  0.0000000000000E+00
 8.5000000000000E-01  1.0000000000000E+00  1.9687449405929E+00
 9.0000000000000E-01  0.0000000000000E+00  0.0000000000000E+00
 9.0000000000000E-01  5.0000000000000E-02  0.0000000000000E+00
 9.0000000000000E-01  1.0000000000000E-01  0.0000000000000E+00
 9.0000000000000E-01  1.5000000000000E-01  0.0000000000000E+00
 9.0000000000000E-01  2.0000000000000E-01  0.0000000000000E+00
 9.0000000000000E-01  2.5000000000000E-01  0.0000000000000E+00
 9.0000000000000E-01  3.0000000000000E-01  0.0000000000000E+00
 9.0000000000000E-01  3.5000000000000E-01  0.0000000000000E+00
 9.0000000000000E-01  4.0000000000000E-01  0.0000000000000E+00
 9.0000000000000E-01  4.5000000000000E-01  0.0000000000000E+00
 9.0000000000000E-01  5.0000000000000E-01  0.0000000000000E+00
 9.0000000000000E-01  5.5000000000000E-01  0.0000000000000E+00
 9.0000000000000E-01  6.0000000000000E-01  0.0000000000000E+00
 9.0000000000000E-01  6.5000000000000E-01  0.0000000000000E+00
 9.0000000000000E-01  7.0000000000000E-01  0.0000000000000E+00
 9.0000000000000E-01  7.5000000000000E-01  0.0000000000000E+00
 9.0000000000000E-01  8.0000000000000E-01  0.0000000000000E+00
 9.0000000000000E-01  8.5000000000000E-01  0.0000000000000E+00
 9.0000000000000E-01  9.0000000000000E-01  0.0000000000000E+00
 9.0000000000000E-01  9.5000000000000E-01  0.0000000000000E+00
 9.0000000000000E-01  1.0000000000000E+00  2.0696846521818E+00
 9.5000000000000E-01  0.0000000000000E+00  0.0000000000000E+00
 9.5000000000000E-01  5.0000000000000E-02  0.0000000000000E+00
 9.5000000000000E-01  1.0000000000000E-01  0.0000000000000E+00
 9.5000000000000E-01  1.5000000000000E-01  0.0000000000000E+00
 9.5000000000000E-01  2.0000000000000E-01  0.0000000000000E+00
 9.5000000000000E-01  2.5000000000000E-01  0.0000000000000E+00
 9.5000000000000E-01  3.0000000000000E-01  0.0000000000000E+00
 9.5000000000000E-01  3.5000000000000E-01  0.0000000000000E+00
 9.5000000000000E-01  4.0000000000000E-01  0.0000000000000E+00
 9.5000000000000E-01  4.5000000000000E-01  0.0000000000000E+00
 9.5000000000000E-01  5.0000000000000E-01  0.0000000000000E+00
 9.5000000000000E-01  5.5000000000000E-01  0.0000000000000E+00
 9.5000000000000E-01  6.0000000000000E-01  0.0000000000000E+00
 9.5000000000000E-01  6.5000000000000E-01  0.0000000000000E+00
 9.5000000000000E-01  7.0000000000000E-01  0.0000000000000E+00
 9.5000000000000E-01  7.5000000000000E-01  0.0000000000000E+00
 9.5000000000000E-01  8.0000000000000E-01  0.0000000000000E+00
 9.5000000000000E-01  8.5000000000000E-01  0.0000000000000E+00
 9.5000000000000E-01  9.0000000000000E-01  0.0000000000000E+00
 9.5000000000000E-01  9.5000000000000E-01  0.0000000000000E+00
 9.5000000000000E-01  1.0000000000000E+00  2.1757996534518E+00
 1.0000000000000E+00  0.0000000000000E+00  0.0000000000000E+00
 1.0000000000000E+00  5.0000000000000E-02  1.3585746762996E-01
 1.0000000000000E+00  1.0000000000000E-01  2.7137536234405E-01
 1.0000000000000E+00  1.5000000000000E-01  4.0621495998184E-01
 1.0000000000000E+00  2.0000000000000E-01  5.4003923177233E-01
 1.0000000000000E+00  2.5000000000000E-01  6.7251368673039E-01
 1.0000000000000E+00  3.0000000000000E-01  8.0330720770998E-01
 1.0000000000000E+00  3.5000000000000E-01  9.3209287902460E-01
 1.0000000000000E+00  4.0000000000000E-01  1.0585488035662E+00
 1.0000000000000E+00  4.5000000000000E-01  1.1823589073805E+00
 1.0000000000000E+00  5.0000000000000E-01  1.3032137296870E+00
 1.0000000000000E+00  5.5000000000000E-01  1.4208111963698E+00
 1.0000000000000E+00  6.0000000000000E-01  1.5348573750059E+00
 1.0000000000000E+00  6.5000000000000E-01  1.6450672095427E+00
 1.0000000000000E+00  7.0000000000000E-01  1.7511652327901E+00
 1.0000000000000E+00  7.5000000000000E-01  1.8528862549448E+00
 1.0000000000000E+00  8.0000000000000E-01  1.9499760264266E+00
 1.0000000000000E+00  8.5000000000000E-01  2.0421918733702E+00
 1.0000000000000E+00  9.0000000000000E-01  2.1293033041834E+00
 1.0000000000000E+00  9.5000000000000E-01  2.2110925856558E+00
 1.0000000000000E+00  1.0000000000000E+00  2.2873552871788E+00
